<UPF version="2.0.1">
<PP_INFO>
Generated by new atomic code, or converted to UPF format
Author:
Generation date:
Pseudopotential type: US
Element: Au
Functional:  SLA  PW   PBE  PBE
Suggested minimum cutoff for wavefunctions:   0. Ry
Suggested minimum cutoff for charge density:   0. Ry
The Pseudo was generated with a Scalar-Relativistic Calculation
L component and cutoff radius for Local Potential:  0   0.0000
Valence configuration:
nl pn  l   occ       Rcut    Rcut US       E pseu
6S  0  0  1.00     10.000      2.400     0.000000
6P  0  1  0.50     10.000      2.600     0.000000
5D  0  2  9.50     10.000      2.000     0.000000
Generation configuration: not available.
</PP_INFO>
<!--
END OF HUMAN READABLE SECTION
-->
<PP_HEADER generated="Generated by new atomic code, or converted to UPF format" author="" date="" comment="" element="Au" pseudo_type="US" relativistic="scalar" is_ultrasoft="true" is_paw="false" is_coulomb="false" has_so="false" has_wfc="false" has_gipaw="false" paw_as_gipaw="false" core_correction="false" functional=" SLA  PW   PBE  PBE" z_valence="1.100000000000e1" total_psenergy="-6.657009272391e1" wfc_cutoff="0.000000000000e0" rho_cutoff="0.000000000000e0" l_max="2" l_max_rho="0" l_local="0" mesh_size="895" number_of_wfc="3" number_of_proj="6"/>
<PP_MESH mesh="895" rmax="1.194734603750e2" zmesh="7.900000000000e1">
<PP_R>
0.000000000000000e0 5.363393554420000e-7 1.081846683640000e-6 1.636678698300000e-6
2.200994791920000e-6 2.774957081590000e-6 3.358730455580000e-6 3.952482620669999e-6
4.556384150370000e-6 5.170608533920000e-6 5.795332226070000e-6 6.430734697880000e-6
7.076998488160001e-6 7.734309256000003e-6 8.402855834069999e-6 9.082830282850001e-6
9.774427945859998e-6 1.047784750570000e-5 1.119329104120000e-5 1.192096408550000e-5
1.266107568500000e-5 1.341383845930000e-5 1.417946866260000e-5 1.495818624580000e-5
1.575021491930000e-5 1.655578221750000e-5 1.737511956450000e-5 1.820846234000000e-5
1.905604994710000e-5 1.991812588150000e-5 2.079493780090000e-5 2.168673759640000e-5
2.259378146470000e-5 2.351632998210000e-5 2.445464817890000e-5 2.540900561570000e-5
2.637967646100000e-5 2.736693956970000e-5 2.837107856340000e-5 2.939238191180000e-5
3.043114301570000e-5 3.148766029080000e-5 3.256223725430000e-5 3.365518261140000e-5
3.476681034389999e-5 3.589743980110000e-5 3.704739579100000e-5 3.821700867370001e-5
3.940661445620000e-5 4.061655488940000e-5 4.184717756570000e-5 4.309883601910000e-5
4.437188982700000e-5 4.566670471300000e-5 4.698365265240001e-5 4.832311197890000e-5
4.968546749330000e-5 5.107111057380001e-5 5.248043928900000e-5 5.391385851160001e-5
5.537178003539999e-5 5.685462269300000e-5 5.836281247630000e-5 5.989678265900000e-5
6.145697392130000e-5 6.304383447570000e-5 6.465782019670002e-5 6.629939475110000e-5
6.796902973150000e-5 6.966720479170001e-5 7.139440778449999e-5 7.315113490200000e-5
7.493789081790001e-5 7.675518883250000e-5 7.860355102050000e-5 8.048350838050000e-5
8.239560098779998e-5 8.434037814969999e-5 8.631839856299999e-5 8.833023047479999e-5
9.037645184530000e-5 9.245765051450000e-5 9.457442437030000e-5 9.672738152099999e-5
9.891714046950002e-5 1.011443302910000e-4 1.034095908150000e-4 1.057135728050000e-4
1.080569381520000e-4 1.104403600600000e-4 1.128645232380000e-4 1.153301241030000e-4
1.178378709740000e-4 1.203884842780000e-4 1.229826967560000e-4 1.256212536760000e-4
1.283049130450000e-4 1.310344458240000e-4 1.338106361580000e-4 1.366342815900000e-4
1.395061933010000e-4 1.424271963340000e-4 1.453981298380000e-4 1.484198473030000e-4
1.514932168110000e-4 1.546191212820000e-4 1.577984587270000e-4 1.610321425090000e-4
1.643211016020000e-4 1.676662808610000e-4 1.710686412900000e-4 1.745291603230000e-4
1.780488320990000e-4 1.816286677510000e-4 1.852696956990000e-4 1.889729619370000e-4
1.927395303440000e-4 1.965704829800000e-4 2.004669204060000e-4 2.044299619910000e-4
2.084607462420000e-4 2.125604311240000e-4 2.167301943970000e-4 2.209712339540000e-4
2.252847681630000e-4 2.296720362200000e-4 2.341342985010000e-4 2.386728369290000e-4
2.432889553360000e-4 2.479839798460000e-4 2.527592592470000e-4 2.576161653850000e-4
2.625560935550000e-4 2.675804629030000e-4 2.726907168330000e-4 2.778883234220000e-4
2.831747758410000e-4 2.885515927870000e-4 2.940203189150000e-4 2.995825252830000e-4
3.052398098070000e-4 3.109937977140000e-4 3.168461420149999e-4 3.227985239730000e-4
3.288526535940000e-4 3.350102701110000e-4 3.412731424890000e-4 3.476430699300001e-4
3.541218823910000e-4 3.607114411080000e-4 3.674136391360000e-4 3.742304018850001e-4
3.811636876790001e-4 3.882154883180000e-4 3.953878296480001e-4 4.026827721429999e-4
4.101024114980000e-4 4.176488792340000e-4 4.253243433030001e-4 4.331310087189999e-4
4.410711181849999e-4 4.491469527410000e-4 4.573608324180000e-4 4.657151169050000e-4
4.742122062249999e-4 4.828545414290001e-4 4.916446052920000e-4 5.005849230290000e-4
5.096780630200000e-4 5.189266375500000e-4 5.283333035530000e-4 5.379007633830001e-4
5.476317655869999e-4 5.575291056929999e-4 5.675956270149999e-4 5.778342214700000e-4
5.882478304090000e-4 5.988394454580000e-4 6.096121093850000e-4 6.205689169679999e-4
6.317130158840000e-4 6.430476076190001e-4 6.545759483810000e-4 6.663013500390001e-4
6.782271810739999e-4 6.903568675470000e-4 7.026938940820000e-4 7.152418048670000e-4
7.280042046760000e-4 7.409847598970000e-4 7.541871995950000e-4 7.676153165739999e-4
7.812729684720000e-4 7.951640788680001e-4 8.092926384100000e-4 8.236627059589999e-4
8.382784097580000e-4 8.531439486160000e-4 8.682635931130001e-4 8.836416868330000e-4
8.992826476019999e-4 9.151909687670001e-4 9.313712204809999e-4 9.478280510159999e-4
9.645661881020001e-4 9.815904402810000e-4 9.989056982919999e-4 1.016516936470000e-3
1.034429214190000e-3 1.052647677300000e-3 1.071177559610000e-3 1.090024184400000e-3
1.109192965930000e-3 1.128689411040000e-3 1.148519120660000e-3 1.168687791490000e-3
1.189201217610000e-3 1.210065292110000e-3 1.231286008850000e-3 1.252869464130000e-3
1.274821858460000e-3 1.297149498320000e-3 1.319858798030000e-3 1.342956281530000e-3
1.366448584270000e-3 1.390342455140000e-3 1.414644758380000e-3 1.439362475580000e-3
1.464502707670000e-3 1.490072676930000e-3 1.516079729130000e-3 1.542531335590000e-3
1.569435095350000e-3 1.596798737340000e-3 1.624630122600000e-3 1.652937246540000e-3
1.681728241270000e-3 1.711011377860000e-3 1.740795068810000e-3 1.771087870390000e-3
1.801898485140000e-3 1.833235764340000e-3 1.865108710600000e-3 1.897526480390000e-3
1.930498386720000e-3 1.964033901760000e-3 1.998142659640000e-3 2.032834459120000e-3
2.068119266510000e-3 2.104007218430000e-3 2.140508624800000e-3 2.177633971770000e-3
2.215393924740000e-3 2.253799331410000e-3 2.292861224900000e-3 2.332590826950000e-3
2.372999551090000e-3 2.414099005980000e-3 2.455900998700000e-3 2.498417538140000e-3
2.541660838480000e-3 2.585643322690000e-3 2.630377626090000e-3 2.675876599980000e-3
2.722153315320000e-3 2.769221066520000e-3 2.817093375250001e-3 2.865783994280000e-3
2.915306911490001e-3 2.965676353860000e-3 3.016906791540000e-3 3.069012942060001e-3
3.122009774510000e-3 3.175912513840000e-3 3.230736645270000e-3 3.286497918720000e-3
3.343212353310000e-3 3.400896242020001e-3 3.459566156290000e-3 3.519238950870001e-3
3.579931768600000e-3 3.641662045329999e-3 3.704447515000000e-3 3.768306214649999e-3
3.833256489640000e-3 3.899316998950000e-3 3.966506720460000e-3 4.034844956490000e-3
4.104351339289999e-3 4.175045836700000e-3 4.246948757890000e-3 4.320080759160000e-3
4.394462849930000e-3 4.470116398730000e-3 4.547063139370000e-3 4.625325177150000e-3
4.704924995240000e-3 4.785885461129999e-3 4.868229833200000e-3 4.951981767390000e-3
5.037165324000000e-3 5.123804974640000e-3 5.211925609180001e-3 5.301552542990001e-3
5.392711524150000e-3 5.485428740870001e-3 5.579730829010000e-3 5.675644879740000e-3
5.773198447310000e-3 5.872419556970000e-3 5.973336713020000e-3 6.075978907010001e-3
6.180375626069999e-3 6.286556861330000e-3 6.394553116630000e-3 6.504395417190000e-3
6.616115318580000e-3 6.729744915770000e-3 6.845316852329999e-3 6.962864329859999e-3
7.082421117470000e-3 7.204021561500000e-3 7.327700595420001e-3 7.453493749820001e-3
7.581437162630000e-3 7.711567589520001e-3 7.843922414450000e-3 7.978539660399999e-3
8.115458000289999e-3 8.254716768120002e-3 8.396355970230001e-3 8.540416296829999e-3
8.686939133659999e-3 8.835966573890000e-3 8.987541430239999e-3 9.141707247210000e-3
9.298508313659999e-3 9.457989675510001e-3 9.620197148670002e-3 9.785177332210001e-3
9.952977621730001e-3 1.012364622300000e-2 1.029723216590000e-2 1.047378531810000e-2
1.065335640010000e-2 1.083599699920000e-2 1.102175958440000e-2 1.121069752170000e-2
1.140286508940000e-2 1.159831749350000e-2 1.179711088360000e-2 1.199930236930000e-2
1.220495003630000e-2 1.241411296310000e-2 1.262685123830000e-2 1.284322597730000e-2
1.306329934060000e-2 1.328713455090000e-2 1.351479591170000e-2 1.374634882570000e-2
1.398185981360000e-2 1.422139653320000e-2 1.446502779870000e-2 1.471282360070000e-2
1.496485512610000e-2 1.522119477870000e-2 1.548191619990000e-2 1.574709428990000e-2
1.601680522930000e-2 1.629112650080000e-2 1.657013691160000e-2 1.685391661590000e-2
1.714254713830000e-2 1.743611139660000e-2 1.773469372620000e-2 1.803837990400000e-2
1.834725717320000e-2 1.866141426830000e-2 1.898094144040000e-2 1.930593048360000e-2
1.963647476100000e-2 1.997266923140000e-2 2.031461047720000e-2 2.066239673130000e-2
2.101612790600000e-2 2.137590562160000e-2 2.174183323500000e-2 2.211401587030000e-2
2.249256044840000e-2 2.287757571770000e-2 2.326917228570000e-2 2.366746265050000e-2
2.407256123320000e-2 2.448458441080000e-2 2.490365054970000e-2 2.532988003930000e-2
2.576339532720000e-2 2.620432095390000e-2 2.665278358890000e-2 2.710891206669999e-2
2.757283742430000e-2 2.804469293840000e-2 2.852461416400000e-2 2.901273897310000e-2
2.950920759470000e-2 3.001416265440000e-2 3.052774921620000e-2 3.105011482340000e-2
3.158140954170000e-2 3.212178600170001e-2 3.267139944320000e-2 3.323040775940000e-2
3.379897154260000e-2 3.437725413020000e-2 3.496542165150001e-2 3.556364307580000e-2
3.617209026040000e-2 3.679093800050000e-2 3.742036407900000e-2 3.806054931800000e-2
3.871167763010000e-2 3.937393607200001e-2 4.004751489769999e-2 4.073260761340000e-2
4.142941103290000e-2 4.213812533440001e-2 4.285895411779999e-2 4.359210446330001e-2
4.433778699070000e-2 4.509621592029999e-2 4.586760913390000e-2 4.665218823790001e-2
4.745017862680000e-2 4.826180954760001e-2 4.908731416640000e-2 4.992692963450001e-2
5.078089715720000e-2 5.164946206300001e-2 5.253287387359999e-2 5.343138637630000e-2
5.434525769620000e-2 5.527475037079999e-2 5.622013142559999e-2 5.718167245009999e-2
5.815964967650000e-2 5.915434405859999e-2 6.016604135310000e-2 6.119503220080000e-2
6.224161221099999e-2 6.330608204590000e-2 6.438874750699998e-2 6.548991962320000e-2
6.660991473989998e-2 6.774905461000000e-2 6.890766648640000e-2 7.008608321590000e-2
7.128464333469999e-2 7.250369116610001e-2 7.374357691880000e-2 7.500465678800000e-2
7.628729305770000e-2 7.759185420429999e-2 7.891871500300001e-2 8.026825663530001e-2
8.164086679840000e-2 8.303693981650000e-2 8.445687675460000e-2 8.590108553289999e-2
8.736998104470000e-2 8.886398527530000e-2 9.038352742310000e-2 9.192904402330001e-2
9.350097907279999e-2 9.509978415819999e-2 9.672591858519999e-2 9.837984951080001e-2
1.000620520770000e-1 1.017730095490000e-1 1.035132134510000e-1 1.052831637100000e-1
1.070833687980000e-1 1.089143458800000e-1 1.107766209600000e-1 1.126707290330000e-1
1.145972142400000e-1 1.165566300240000e-1 1.185495392850000e-1 1.205765145490000e-1
1.226381381270000e-1 1.247350022820000e-1 1.268677094040000e-1 1.290368721770000e-1
1.312431137600000e-1 1.334870679650000e-1 1.357693794350000e-1 1.380907038340000e-1
1.404517080340000e-1 1.428530703060000e-1 1.452954805140000e-1 1.477796403170000e-1
1.503062633640000e-1 1.528760755060000e-1 1.554898150010000e-1 1.581482327240000e-1
1.608520923880000e-1 1.636021707590000e-1 1.663992578820000e-1 1.692441573060000e-1
1.721376863150000e-1 1.750806761640000e-1 1.780739723170000e-1 1.811184346910000e-1
1.842149379000000e-1 1.873643715100000e-1 1.905676402920000e-1 1.938256644840000e-1
1.971393800510000e-1 2.005097389620000e-1 2.039377094550000e-1 2.074242763190000e-1
2.109704411780000e-1 2.145772227760000e-1 2.182456572720000e-1 2.219767985360000e-1
2.257717184530000e-1 2.296315072290000e-1 2.335572737070000e-1 2.375501456850000e-1
2.416112702370000e-1 2.457418140450000e-1 2.499429637350000e-1 2.542159262150000e-1
2.585619290260000e-1 2.629822206900000e-1 2.674780710700000e-1 2.720507717380000e-1
2.767016363430000e-1 2.814320009870000e-1 2.862432246130000e-1 2.911366893920000e-1
2.961138011220000e-1 3.011759896310000e-1 3.063247091880000e-1 3.115614389200000e-1
3.168876832390000e-1 3.223049722700000e-1 3.278148622970000e-1 3.334189362050000e-1
3.391188039340000e-1 3.449161029480000e-1 3.508124986980000e-1 3.568096851040000e-1
3.629093850420000e-1 3.691133508370000e-1 3.754233647690000e-1 3.818412395830000e-1
3.883688190110000e-1 3.950079782980000e-1 4.017606247480000e-1 4.086286982650000e-1
4.156141719130000e-1 4.227190524850000e-1 4.299453810740000e-1 4.372952336650000e-1
4.447707217290001e-1 4.523739928280000e-1 4.601072312360000e-1 4.679726585610000e-1
4.759725343900000e-1 4.841091569310000e-1 4.923848636780000e-1 5.008020320830000e-1
5.093630802350000e-1 5.180704675570000e-1 5.269266955130000e-1 5.359343083260000e-1
5.450958937090000e-1 5.544140836080000e-1 5.638915549590000e-1 5.735310304560000e-1
5.833352793330000e-1 5.933071181620000e-1 6.034494116590000e-1 6.137650735080000e-1
6.242570671999999e-1 6.349284068820000e-1 6.457821582220000e-1 6.568214392940001e-1
6.680494214690000e-1 6.794693303300000e-1 6.910844465950000e-1 7.028981070620000e-1
7.149137055670000e-1 7.271346939600000e-1 7.395645830930000e-1 7.522069438340000e-1
7.650654080880001e-1 7.781436698429999e-1 7.914454862310000e-1 8.049746786050001e-1
8.187351336420001e-1 8.327308044530000e-1 8.469657117240001e-1 8.614439448680001e-1
8.761696632020000e-1 8.911470971400000e-1 9.063805494080000e-1 9.218743962820000e-1
9.376330888460000e-1 9.536611542650000e-1 9.699631970950000e-1 9.865439005940001e-1
1.003408028080000e0 1.020560424290000e0 1.038006016770000e0 1.055749817320000e0
1.073796923360000e0 1.092152519500000e0 1.110821878940000e0 1.129810365020000e0
1.149123432770000e0 1.168766630460000e0 1.188745601200000e0 1.209066084560000e0
1.229733918230000e0 1.250755039670000e0 1.272135487840000e0 1.293881404940000e0
1.315999038130000e0 1.338494741400000e0 1.361374977330000e0 1.384646318950000e0
1.408315451680000e0 1.432389175200000e0 1.456874405430000e0 1.481778176500000e0
1.507107642770000e0 1.532870080930000e0 1.559072892000000e0 1.585723603570000e0
1.612829871850000e0 1.640399483970000e0 1.668440360120000e0 1.696960555920000e0
1.725968264660000e0 1.755471819700000e0 1.785479696830000e0 1.816000516750000e0
1.847043047490000e0 1.878616206970000e0 1.910729065540000e0 1.943390848620000e0
1.976610939290000e0 2.010398881050000e0 2.044764380520000e0 2.079717310250000e0
2.115267711520000e0 2.151425797300000e0 2.188201955080000e0 2.225606749960000e0
2.263650927600000e0 2.302345417370000e0 2.341701335430000e0 2.381729987990000e0
2.422442874500000e0 2.463851690980000e0 2.505968333390000e0 2.548804901030000e0
2.592373700010000e0 2.636687246790000e0 2.681758271820000e0 2.727599723120000e0
2.774224770050000e0 2.821646807090000e0 2.869879457670000e0 2.918936578090000e0
2.968832261530000e0 3.019580842030000e0 3.071196898700000e0 3.123695259820000e0
3.177091007150000e0 3.231399480270000e0 3.286636280940000e0 3.342817277620000e0
3.399958610040000e0 3.458076693790000e0 3.517188225070000e0 3.577310185490000e0
3.638459846900000e0 3.700654776440000e0 3.763912841500000e0 3.828252214900000e0
3.893691380090000e0 3.960249136480000e0 4.027944604830000e0 4.096797232740000e0
4.166826800230000e0 4.238053425440000e0 4.310497570400000e0 4.384180046910000e0
4.459122022530000e0 4.535345026640000e0 4.612870956620000e0 4.691722084180000e0
4.771921061710000e0 4.853490928840000e0 4.936455119010000e0 5.020837466230000e0
5.106662211910000e0 5.193954011830000e0 5.282737943250000e0 5.373039512070000e0
5.464884660180000e0 5.558299772920000e0 5.653311686640000e0 5.749947696420000e0
5.848235563920000e0 5.948203525350000e0 6.049880299560000e0 6.153295096330000e0
6.258477624720000e0 6.365458101640000e0 6.474267260500000e0 6.584936360090000e0
6.697497193470000e0 6.811982097220000e0 6.928423960620000e0 7.046856235160000e0
7.167312944150000e0 7.289828692470000e0 7.414438676520000e0 7.541178694350000e0
7.670085155900000e0 7.801195093500000e0 7.934546172510000e0 8.070176702110000e0
8.208125646319999e0 8.348432635209999e0 8.491137976259999e0 8.636282665960000e0
8.783908401560000e0 8.934057593080000e0 9.086773375490001e0 9.242099621050000e0
9.400080952020000e0 9.560762753350000e0 9.724191185830000e0 9.890413199279999e0
1.005947654610000e1 1.023142979480000e1 1.040632234440000e1 1.058420443800000e1
1.076512717770000e1 1.094914253920000e1 1.113630338650000e1 1.132666348720000e1
1.152027752830000e1 1.171720113110000e1 1.191749086810000e1 1.212120427860000e1
1.232839988560000e1 1.253913721230000e1 1.275347679950000e1 1.297148022280000e1
1.319321011030000e1 1.341873016090000e1 1.364810516200000e1 1.388140100860000e1
1.411868472210000e1 1.436002446950000e1 1.460548958310000e1 1.485515058020000e1
1.510907918370000e1 1.536734834230000e1 1.563003225160000e1 1.589720637580000e1
1.616894746880000e1 1.644533359650000e1 1.672644415940000e1 1.701235991490000e1
1.730316300140000e1 1.759893696070000e1 1.789976676300000e1 1.820573883100000e1
1.851694106450000e1 1.883346286590000e1 1.915539516570000e1 1.948283044880000e1
1.981586278120000e1 2.015458783650000e1 2.049910292390000e1 2.084950701590000e1
2.120590077680000e1 2.156838659170000e1 2.193706859560000e1 2.231205270400000e1
2.269344664230000e1 2.308135997770000e1 2.347590415020000e1 2.387719250470000e1
2.428534032350000e1 2.470046485980000e1 2.512268537060000e1 2.555212315180000e1
2.598890157250000e1 2.643314611080000e1 2.688498438940000e1 2.734454621280000e1
2.781196360430000e1 2.828737084370000e1 2.877090450630000e1 2.926270350210000e1
2.976290911540000e1 3.027166504560000e1 3.078911744830000e1 3.131541497770000e1
3.185070882890000e1 3.239515278140000e1 3.294890324340000e1 3.351211929680000e1
3.408496274250000e1 3.466759814750001e1 3.526019289160000e1 3.586291721580000e1
3.647594427120000e1 3.709945016850000e1 3.773361402900000e1 3.837861803560000e1
3.903464748550000e1 3.970189084340000e1 4.038053979520000e1 4.107078930370000e1
4.177283766420000e1 4.248688656170000e1 4.321314112850000e1 4.395181000360000e1
4.470310539220001e1 4.546724312700000e1 4.624444272990000e1 4.703492747530000e1
4.783892445430000e1 4.865666463950000e1 4.948838295190001e1 5.033431832820000e1
5.119471378910000e1 5.206981650960000e1 5.295987788980000e1 5.386515362720001e1
5.478590378980001e1 5.572239289150001e1 5.667488996740000e1 5.764366865150000e1
5.862900725510000e1 5.963118884710000e1 6.065050133470001e1 6.168723754660000e1
6.274169531730000e1 6.381417757190000e1 6.490499241390001e1 6.601445321330001e1
6.714287869670000e1 6.829059303880000e1 6.945792595590000e1 7.064521280000000e1
7.185279465570000e1 7.308101843800000e1 7.433023699160000e1 7.560080919310001e1
7.689310005310000e1 7.820748082170001e1 7.954432909530000e1 8.090402892440000e1
8.228697092439999e1 8.369355238790000e1 8.512417739849999e1 8.657925694700001e1
8.805920904960001e1 8.956445886810000e1 9.109543883140001e1 9.265258876050000e1
9.423635599450000e1 9.584719551899999e1 9.748557009710000e1 9.915195040210001e1
1.008468151530000e2 1.025706512510000e2 1.043239539210000e2 1.061072268540000e2
1.079209823490000e2 1.097657414620000e2 1.116420341590000e2 1.135503994600000e2
1.154913856020000e2 1.174655501940000e2 1.194734603750000e2
</PP_R>
<PP_RAB>
5.318069462919999e-7 5.408974438420000e-7 5.501433307600000e-7 5.595472632120000e-7
5.691119427649999e-7 5.788401171659999e-7 5.887345811319999e-7 5.987981771509999e-7
6.090337962980000e-7 6.194443790700000e-7 6.300329162250000e-7 6.408024496460002e-7
6.517560732100001e-7 6.628969336820002e-7 6.742282316150000e-7 6.857532222720000e-7
6.974752165610000e-7 7.093975819820000e-7 7.215237436010002e-7 7.338571850300001e-7
7.464014494270000e-7 7.591601405170000e-7 7.721369236250000e-7 7.853355267290000e-7
7.987597415340000e-7 8.124134245550001e-7 8.263004982329999e-7 8.404249520539999e-7
8.547908437010001e-7 8.694023002160002e-7 8.842635191890000e-7 8.993787699589999e-7
9.147523948459998e-7 9.303888103949999e-7 9.462925086460000e-7 9.624680584220000e-7
9.789201066480002e-7 9.956533796770001e-7 1.012672684650000e-6 1.029982910900000e-6
1.047589031300000e-6 1.065496103760000e-6 1.083709272640000e-6 1.102233770210000e-6
1.121074918220000e-6 1.140238129360000e-6 1.159728908850000e-6 1.179552856020000e-6
1.199715665890000e-6 1.220223130860000e-6 1.241081142320000e-6 1.262295692380000e-6
1.283872875560000e-6 1.305818890580000e-6 1.328140042100000e-6 1.350842742540000e-6
1.373933513970000e-6 1.397418989920000e-6 1.421305917290000e-6 1.445601158350000e-6
1.470311692650000e-6 1.495444619050000e-6 1.521007157750000e-6 1.547006652379999e-6
1.573450572080000e-6 1.600346513680000e-6 1.627702203860000e-6 1.655525501390000e-6
1.683824399370000e-6 1.712607027510000e-6 1.741881654499999e-6 1.771656690390000e-6
1.801940688970000e-6 1.832742350230000e-6 1.864070522910000e-6 1.895934206980000e-6
1.928342556250000e-6 1.961304881030000e-6 1.994830650750000e-6 2.028929496710000e-6
2.063611214860000e-6 2.098885768570000e-6 2.134763291550000e-6 2.171254090720000e-6
2.208368649160000e-6 2.246117629190000e-6 2.284511875350000e-6 2.323562417570000e-6
2.363280474300000e-6 2.403677455780000e-6 2.444764967279999e-6 2.486554812450000e-6
2.529058996700000e-6 2.572289730660000e-6 2.616259433680001e-6 2.660980737410000e-6
2.706466489420000e-6 2.752729756870000e-6 2.799783830320000e-6 2.847642227480001e-6
2.896318697150000e-6 2.945827223140001e-6 2.996182028280000e-6 3.047397578550000e-6
3.099488587159999e-6 3.152470018869999e-6 3.206357094210000e-6 3.261165293900001e-6
3.316910363280000e-6 3.373608316810000e-6 3.431275442730000e-6 3.489928307690000e-6
3.549583761520001e-6 3.610258942080000e-6 3.671971280170000e-6 3.734738504550000e-6
3.798578647030000e-6 3.863510047649999e-6 3.929551359950000e-6 3.996721556310000e-6
4.065039933440000e-6 4.134526117880000e-6 4.205200071660001e-6 4.277082098050000e-6
4.350192847370000e-6 4.424553322900000e-6 4.500184886990001e-6 4.577109267119999e-6
4.655348562160000e-6 4.734925248760000e-6 4.815862187769999e-6 4.898182630779999e-6
4.981910226890001e-6 5.067069029389999e-6 5.153683502779999e-6 5.241778529709999e-6
5.331379418180000e-6 5.422511908790000e-6 5.515202182139999e-6 5.609476866350000e-6
5.705363044720000e-6 5.802888263480001e-6 5.902080539760000e-6 6.002968369560000e-6
6.105580736020001e-6 6.209947117670000e-6 6.316097496959999e-6 6.424062368840000e-6
6.533872749520000e-6 6.645560185419999e-6 6.759156762149999e-6 6.874695113830000e-6
6.992208432379999e-6 7.111730477110000e-6 7.233295584390000e-6 7.356938677520000e-6
7.482695276769999e-6 7.610601509579999e-6 7.740694120920000e-6 7.873010483900000e-6
8.007588610440003e-6 8.144467162240000e-6 8.283685461850002e-6 8.425283504000001e-6
8.569301967059999e-6 8.715782224750001e-6 8.864766358019999e-6 9.016297167120001e-6
9.170418183929998e-6 9.327173684420000e-6 9.486608701429999e-6 9.648769037540001e-6
9.813701278280002e-6 9.981452805500002e-6 1.015207181100000e-5 1.032560731020000e-5
1.050210915660000e-5 1.068162805580000e-5 1.086421557990000e-5 1.104992418300000e-5
1.123880721550000e-5 1.143091893980000e-5 1.162631454600000e-5 1.182505016730000e-5
1.202718289670000e-5 1.223277080300000e-5 1.244187294770000e-5 1.265454940170000e-5
1.287086126280000e-5 1.309087067340000e-5 1.331464083770000e-5 1.354223604080000e-5
1.377372166610000e-5 1.400916421520000e-5 1.424863132610000e-5 1.449219179310000e-5
1.473991558630000e-5 1.499187387200000e-5 1.524813903300000e-5 1.550878468920000e-5
1.577388571920000e-5 1.604351828130000e-5 1.631775983580000e-5 1.659668916690000e-5
1.688038640560000e-5 1.716893305280000e-5 1.746241200210000e-5 1.776090756450000e-5
1.806450549190000e-5 1.837329300230000e-5 1.868735880410000e-5 1.900679312250000e-5
1.933168772480000e-5 1.966213594690000e-5 1.999823272020000e-5 2.034007459870000e-5
2.068775978710000e-5 2.104138816860000e-5 2.140106133370000e-5 2.176688260950000e-5
2.213895708960000e-5 2.251739166360001e-5 2.290229504850000e-5 2.329377781960000e-5
2.369195244230000e-5 2.409693330450000e-5 2.450883674940000e-5 2.492778110870000e-5
2.535388673720000e-5 2.578727604680000e-5 2.622807354170000e-5 2.667640585470000e-5
2.713240178280000e-5 2.759619232490000e-5 2.806791071910000e-5 2.854769248090000e-5
2.903567544230000e-5 2.953199979140000e-5 3.003680811260001e-5 3.055024542750000e-5
3.107245923670000e-5 3.160359956229999e-5 3.214381899040000e-5 3.269327271560000e-5
3.325211858550000e-5 3.382051714570000e-5 3.439863168590001e-5 3.498662828740000e-5
3.558467587010000e-5 3.619294624170000e-5 3.681161414630000e-5 3.744085731530000e-5
3.808085651820000e-5 3.873179561420001e-5 3.939386160559999e-5 4.006724469110000e-5
4.075213832080000e-5 4.144873925110000e-5 4.215724760220000e-5 4.287786691470000e-5
4.361080420870000e-5 4.435627004280001e-5 4.511447857500000e-5 4.588564762380000e-5
4.666999873130001e-5 4.746775722640000e-5 4.827915228950000e-5 4.910441701890000e-5
4.994378849699999e-5 5.079750785909999e-5 5.166582036230000e-5 5.254897545590000e-5
5.344722685320001e-5 5.436083260460000e-5 5.529005517130001e-5 5.623516150089999e-5
5.719642310420000e-5 5.817411613300000e-5 5.916852145969999e-5 6.017992475770000e-5
6.120861658349998e-5 6.225489246040000e-5 6.331905296330000e-5 6.440140380470001e-5
6.550225592330000e-5 6.662192557250001e-5 6.776073441169999e-5 6.891900959870001e-5
7.009708388339999e-5 7.129529570399999e-5 7.251398928340000e-5 7.375351472869999e-5
7.501422813150000e-5 7.629649167060000e-5 7.760067371529999e-5 7.892714893190000e-5
8.027629839110000e-5 8.164850967740001e-5 8.304417700049999e-5 8.446370130879998e-5
8.590749040400000e-5 8.737595905879999e-5 8.886952913580000e-5 9.038862970890001e-5
9.193369718610001e-5 9.350517543559999e-5 9.510351591260001e-5 9.672917778939999e-5
9.838262808710001e-5 1.000643418100000e-4 1.017748020820000e-4 1.035145002860000e-4
1.052839362020000e-4 1.070836181550000e-4 1.089140631600000e-4 1.107757970680000e-4
1.126693547190000e-4 1.145952800950000e-4 1.165541264770000e-4 1.185464566050000e-4
1.205728428360000e-4 1.226338673110000e-4 1.247301221230000e-4 1.268622094860000e-4
1.290307419060000e-4 1.312363423620000e-4 1.334796444790000e-4 1.357612927160000e-4
1.380819425440000e-4 1.404422606430000e-4 1.428429250860000e-4 1.452846255370000e-4
1.477680634490000e-4 1.502939522670000e-4 1.528630176280000e-4 1.554759975770000e-4
1.581336427710000e-4 1.608367167010000e-4 1.635859959070000e-4 1.663822702040000e-4
1.692263429080000e-4 1.721190310650000e-4 1.750611656900000e-4 1.780535919990000e-4
1.810971696610000e-4 1.841927730340000e-4 1.873412914270000e-4 1.905436293480000e-4
1.938007067670000e-4 1.971134593780000e-4 2.004828388720000e-4 2.039098132059999e-4
2.073953668830000e-4 2.109405012360000e-4 2.145462347140000e-4 2.182136031720000e-4
2.219436601770000e-4 2.257374773000000e-4 2.295961444320000e-4 2.335207700940000e-4
2.375124817540000e-4 2.415724261540000e-4 2.457017696370000e-4 2.499016984840000e-4
2.541734192530000e-4 2.585181591280000e-4 2.629371662670000e-4 2.674317101650000e-4
2.720030820190000e-4 2.766525950950000e-4 2.813815851080000e-4 2.861914106060000e-4
2.910834533570000e-4 2.960591187520000e-4 3.011198362030000e-4 3.062670595560000e-4
3.115022675090000e-4 3.168269640349999e-4 3.222426788170000e-4 3.277509676860000e-4
3.333534130650000e-4 3.390516244280001e-4 3.448472387630000e-4 3.507419210360000e-4
3.567373646760000e-4 3.628352920580000e-4 3.690374549970000e-4 3.753456352570001e-4
3.817616450540000e-4 3.882873275850001e-4 3.949245575509999e-4 4.016752416999999e-4
4.085413193730000e-4 4.155247630620000e-4 4.226275789750000e-4 4.298518076130000e-4
4.371995243570001e-4 4.446728400640000e-4 4.522739016730000e-4 4.600048928230001e-4
4.678680344770000e-4 4.758655855630000e-4 4.839998436240000e-4 4.922731454740001e-4
5.006878678730001e-4 5.092464282069999e-4 5.179512851860000e-4 5.268049395469999e-4
5.358099347720000e-4 5.449688578230000e-4 5.542843398820000e-4 5.637590571050000e-4
5.733957313970000e-4 5.831971311860000e-4 5.931660722260000e-4 6.033054183999999e-4
6.136180825460000e-4 6.241070272939999e-4 6.347752659130000e-4 6.456258631830001e-4
6.566619362700000e-4 6.678866556239999e-4 6.793032458900000e-4 6.909149868339998e-4
7.027252142840000e-4 7.147373210890001e-4 7.269547580960001e-4 7.393810351380001e-4
7.520197220430001e-4 7.648744496630000e-4 7.779489109100000e-4 7.912468618259999e-4
8.047721226540000e-4 8.185285789400002e-4 8.325201826480001e-4 8.467509532939999e-4
8.612249791030001e-4 8.759464181839999e-4 8.909194997200000e-4 9.061485251879999e-4
9.216378695930000e-4 9.373919827229999e-4 9.534153904309999e-4 9.697126959309999e-4
9.862885811239998e-4 1.003147807940000e-3 1.020295219710000e-3 1.037735742550000e-3
1.055474386790000e-3 1.073516248400000e-3 1.091866510450000e-3 1.110530444630000e-3
1.129513412710000e-3 1.148820868130000e-3 1.168458357560000e-3 1.188431522470000e-3
1.208746100760000e-3 1.229407928410000e-3 1.250422941160000e-3 1.271797176230000e-3
1.293536774030000e-3 1.315647979900000e-3 1.338137145980000e-3 1.361010732970000e-3
1.384275312000000e-3 1.407937566550000e-3 1.432004294310000e-3 1.456482409200000e-3
1.481378943300000e-3 1.506701048900000e-3 1.532456000560000e-3 1.558651197170000e-3
1.585294164110000e-3 1.612392555390000e-3 1.639954155850000e-3 1.667986883400000e-3
1.696498791310000e-3 1.725498070490000e-3 1.754993051870000e-3 1.784992208800000e-3