<UPF version="2.0.1">
<PP_INFO>
Generated by new atomic code, or converted to UPF format
Author:
Generation date:
Pseudopotential type: US
Element: Au
Functional:  SLA  PW   PBE  PBE
Suggested minimum cutoff for wavefunctions:   0. Ry
Suggested minimum cutoff for charge density:   0. Ry
The Pseudo was generated with a Scalar-Relativistic Calculation
L component and cutoff radius for Local Potential:  0   0.0000
Valence configuration:
nl pn  l   occ       Rcut    Rcut US       E pseu
5D  0  2  9.50     10.000      1.900     0.000000
6S  0  0  1.00     10.000      2.260     0.000000
6P  0  1  0.50     10.000      2.372     0.000000
Generation configuration: not available.
</PP_INFO>
<!--
END OF HUMAN READABLE SECTION
-->
<PP_HEADER generated="Generated by new atomic code, or converted to UPF format" author="" date="" comment="" element="Au" pseudo_type="US" relativistic="scalar" is_ultrasoft="true" is_paw="false" is_coulomb="false" has_so="false" has_wfc="false" has_gipaw="false" paw_as_gipaw="false" core_correction="true" functional=" SLA  PW   PBE  PBE" z_valence="1.100000000000e1" total_psenergy="-1.015590722278e2" wfc_cutoff="0.000000000000e0" rho_cutoff="0.000000000000e0" l_max="2" l_max_rho="0" l_local="0" mesh_size="985" number_of_wfc="3" number_of_proj="3"/>
<PP_MESH mesh="985" rmax="1.530174660550e2" zmesh="7.900000000000e1">
<PP_R>
0.000000000000000e0 1.939922732450000e-7 3.912448447270000e-7 5.918125080949999e-7
7.957509778780000e-7 1.003116904960000e-6 1.213967892330000e-6 1.428362511050000e-6
1.646360316570000e-6 1.868021865230000e-6 2.093408731110000e-6 2.322583523120000e-6
2.555609902410000e-6 2.792552600010000e-6 3.033477434870000e-6 3.278451332110000e-6
3.527542341599999e-6 3.780819656890000e-6 4.038353634420000e-6 4.300215813059999e-6
4.566478933990001e-6 4.837216960900000e-6 5.112505100540000e-6 5.392419823610001e-6
5.677038885990000e-6 5.966441350369999e-6 6.260707608180000e-6 6.559919401940000e-6
6.864159847960001e-6 7.173513459440000e-6 7.488066169910002e-6 7.807905357160000e-6
8.133119867470000e-6 8.463800040270000e-6 8.800037733320000e-6 9.141926348120000e-6
9.489560855940001e-6 9.843037824149999e-6 1.020245544310000e-5 1.056791355320000e-5
1.093951367320000e-5 1.131735902750000e-5 1.170155457560000e-5 1.209220704110000e-5
1.248942494100000e-5 1.289331861610000e-5 1.330400026180000e-5 1.372158395890000e-5
1.414618570560000e-5 1.457792344950000e-5 1.501691712060000e-5 1.546328866430000e-5
1.591716207570000e-5 1.637866343360000e-5 1.684792093580000e-5 1.732506493470000e-5
1.781022797320000e-5 1.830354482200000e-5 1.880515251670000e-5 1.931519039609999e-5
1.983380014070000e-5 2.036112581190000e-5 2.089731389260000e-5 2.144251332730000e-5
2.199687556380000e-5 2.256055459520000e-5 2.313370700270001e-5 2.371649199890000e-5
2.430907147230000e-5 2.491161003210000e-5 2.552427505400001e-5 2.614723672660000e-5
2.678066809900001e-5 2.742474512830000e-5 2.807964672890000e-5 2.874555482220000e-5
2.942265438690000e-5 3.011113351070000e-5 3.081118344200000e-5 3.152299864370000e-5
3.224677684700000e-5 3.298271910580000e-5 3.373102985340000e-5 3.449191695859999e-5
3.526559178389999e-5 3.605226924390000e-5 3.685216786530000e-5 3.766550984710000e-5
3.849252112300000e-5 3.933343142370000e-5 4.018847434060000e-5 4.105788739139999e-5
4.194191208510000e-5 4.284079398979999e-5 4.375478280090000e-5 4.468413240990000e-5
4.562910097540000e-5 4.658995099489999e-5 4.756694937720001e-5 4.856036751720000e-5
4.957048137059999e-5 5.059757153120001e-5 5.164192330830000e-5 5.270382680640000e-5
5.378357700560001e-5 5.488147384340001e-5 5.599782229810001e-5 5.713293247380000e-5
5.828711968620000e-5 5.946070455010001e-5 6.065401306900000e-5 6.186737672520000e-5
6.310113257180000e-5 6.435562332679999e-5 6.563119746790001e-5 6.692820932940000e-5
6.824701920080001e-5 6.958799342660001e-5 7.095150450830000e-5 7.233793120770001e-5
7.374765865230001e-5 7.518107844209999e-5 7.663858875840001e-5 7.812059447469998e-5
7.962750726860000e-5 8.115974573680001e-5 8.271773551100003e-5 8.430190937610000e-5
8.591270739050000e-5 8.755057700849999e-5 8.921597320450001e-5 9.090935859909999e-5
9.263120358820000e-5 9.438198647300000e-5 9.616219359339999e-5 9.797231946290001e-5
9.981286690569998e-5 1.016843471970000e-4 1.035872802040000e-4 1.055221945320000e-4
1.074896276700000e-4 1.094901261390000e-4 1.115242456460000e-4 1.135925512380000e-4
1.156956174570000e-4 1.178340285010000e-4 1.200083783880000e-4 1.222192711180000e-4
1.244673208410000e-4 1.267531520310000e-4 1.290773996540000e-4 1.314407093520000e-4
1.338437376120000e-4 1.362871519600000e-4 1.387716311360000e-4 1.412978652910000e-4
1.438665561710000e-4 1.464784173190000e-4 1.491341742680000e-4 1.518345647460000e-4
1.545803388780000e-4 1.573722593980000e-4 1.602111018560000e-4 1.630976548390000e-4
1.660327201850000e-4 1.690171132080000e-4 1.720516629270000e-4 1.751372122910000e-4
1.782746184170000e-4 1.814647528270000e-4 1.847085016890000e-4 1.880067660670000e-4
1.913604621660000e-4 1.947705215890000e-4 1.982378915980000e-4 2.017635353720000e-4
2.053484322810000e-4 2.089935781510000e-4 2.126999855470000e-4 2.164686840510000e-4
2.203007205470001e-4 2.241971595140000e-4 2.281590833210001e-4 2.321875925300000e-4
2.362838061940000e-4 2.404488621790000e-4 2.446839174720000e-4 2.489901485020000e-4
2.533687514740000e-4 2.578209426939999e-4 2.623479589110000e-4 2.669510576570000e-4
2.716315176030000e-4 2.763906389040000e-4 2.812297435700000e-4 2.861501758290000e-4
2.911533024970000e-4 2.962405133650000e-4 3.014132215800000e-4 3.066728640370000e-4
3.120209017840000e-4 3.174588204200001e-4 3.229881305140000e-4 3.286103680190000e-4
3.343270947060001e-4 3.401398985890000e-4 3.460503943760000e-4 3.520602239070000e-4
3.581710566190000e-4 3.643845900050000e-4 3.707025500860000e-4 3.771266918909999e-4
3.836587999450000e-4 3.903006887660000e-4 3.970542033650000e-4 4.039212197609999e-4
4.109036455029999e-4 4.180034202000000e-4 4.252225160560000e-4 4.325629384210000e-4
4.400267263509999e-4 4.476159531660000e-4 4.553327270340000e-4 4.631791915530001e-4
4.711575263480000e-4 4.792699476730000e-4 4.875187090310000e-4 4.959061017980000e-4
5.044344558580001e-4 5.131061402550000e-4 5.219235638450000e-4 5.308891759680002e-4
5.400054671310000e-4 5.492749696949999e-4 5.587002585820001e-4 5.682839519880000e-4
5.780287121119999e-4 5.879372458930000e-4 5.980123057680000e-4 6.082566904270000e-4
6.186732455990001e-4 6.292648648390000e-4 6.400344903310000e-4 6.509851137069999e-4
6.621197768780000e-4 6.734415728769999e-4 6.849536467200000e-4 6.966591962790001e-4
7.085614731710001e-4 7.206637836619999e-4 7.329694895809999e-4 7.454820092589999e-4
7.582048184770001e-4 7.711414514299999e-4 7.842955017100000e-4 7.976706233060000e-4
8.112705316140001e-4 8.250990044740000e-4 8.391598832179998e-4 8.534570737350000e-4
8.679945475600000e-4 8.827763429730002e-4 8.978065661240000e-4 9.130893921700000e-4
9.286290664399999e-4 9.444299056100000e-4 9.604962989040001e-4 9.768327093110001e-4
9.934436748290000e-4 1.010333809720000e-3 1.027507805800000e-3 1.044970433730000e-3
1.062726544360000e-3 1.080781070050000e-3 1.099139026060000e-3 1.117805511950000e-3
1.136785712960000e-3 1.156084901500000e-3 1.175708438590000e-3 1.195661775320000e-3
1.215950454420000e-3 1.236580111760000e-3 1.257556477940000e-3 1.278885379860000e-3
1.300572742350000e-3 1.322624589830000e-3 1.345047047930000e-3 1.367846345280000e-3
1.391028815150000e-3 1.414600897270000e-3 1.438569139580000e-3 1.462940200100000e-3
1.487720848710000e-3 1.512917969090000e-3 1.538538560600000e-3 1.564589740240000e-3
1.591078744600000e-3 1.618012931930000e-3 1.645399784100000e-3 1.673246908770000e-3
1.701562041410000e-3 1.730353047520000e-3 1.759627924790000e-3 1.789394805330000e-3
1.819661957890000e-3 1.850437790220000e-3 1.881730851360000e-3 1.913549834010000e-3
1.945903577010000e-3 1.978801067700000e-3 2.012251444480000e-3 2.046263999350000e-3
2.080848180460000e-3 2.116013594730000e-3 2.151770010580000e-3 2.188127360570000e-3
2.225095744190000e-3 2.262685430680000e-3 2.300906861860000e-3 2.339770655040000e-3
2.379287605970000e-3 2.419468691840000e-3 2.460325074310000e-3 2.501868102640000e-3
2.544109316820000e-3 2.587060450810000e-3 2.630733435750000e-3 2.675140403309999e-3
2.720293689030000e-3 2.766205835790000e-3 2.812889597250000e-3 2.860357941440000e-3
2.908624054300000e-3 2.957701343400000e-3 3.007603441630000e-3 3.058344211010000e-3
3.109937746530000e-3 3.162398380050000e-3 3.215740684320000e-3 3.269979476970000e-3
3.325129824689999e-3 3.381207047370000e-3 3.438226722390000e-3 3.496204688900000e-3
3.555157052270000e-3 3.615100188540000e-3 3.676050748960000e-3 3.738025664640000e-3
3.801042151220000e-3 3.865117713700000e-3 3.930270151249999e-3 3.996517562200000e-3
4.063878349010000e-3 4.132371223469999e-3 4.202015211800000e-3 4.272829660020000e-3
4.344834239240000e-3 4.418048951209999e-3 4.492494133819999e-3 4.568190466760000e-3
4.645158977289999e-3 4.723421046030001e-3 4.802998412959999e-3 4.883913183400001e-3
4.966187834219999e-3 5.049845219990000e-3 5.134908579430000e-3 5.221401541790000e-3
5.309348133460000e-3 5.398772784600000e-3 5.489700335970000e-3 5.582156045810001e-3
5.676165596860000e-3 5.771755103479999e-3 5.868951118930000e-3 5.967780642730000e-3
6.068271128150000e-3 6.170450489879999e-3 6.274347111720000e-3 6.379989854510000e-3
6.487408064140000e-3 6.596631579689999e-3 6.707690741730000e-3 6.820616400730001e-3
6.935439925680001e-3 7.052193212719999e-3 7.170908694070000e-3 7.291619347019999e-3
7.414358703090000e-3 7.539160857330001e-3 7.666060477809999e-3 7.795092815240000e-3
7.926293712750000e-3 8.059699615900000e-3 8.195347582730001e-3 8.333275294109999e-3
8.473521064180000e-3 8.616123850990000e-3 8.761123267350001e-3 8.908559591810000e-3
9.058473779850001e-3 9.210907475260001e-3 9.365903021719999e-3 9.523503474550001e-3
9.683752612650000e-3 9.846694950709999e-3 1.001237575150000e-2 1.018084103860000e-2
1.035213760900000e-2 1.052631304620000e-2 1.070341573320000e-2 1.088349486660000e-2
1.106660046930000e-2 1.125278340530000e-2 1.144209539330000e-2 1.163458902110000e-2
1.183031776030000e-2 1.202933598150000e-2 1.223169896860000e-2 1.243746293490000e-2
1.264668503840000e-2 1.285942339770000e-2 1.307573710820000e-2 1.329568625840000e-2
1.351933194660000e-2 1.374673629820000e-2 1.397796248240000e-2 1.421307473030000e-2
1.445213835230000e-2 1.469521975650000e-2 1.494238646710000e-2 1.519370714310000e-2
1.544925159740000e-2 1.570909081620000e-2 1.597329697880000e-2 1.624194347750000e-2
1.651510493800000e-2 1.679285724020000e-2 1.707527753940000e-2 1.736244428740000e-2
1.765443725470000e-2 1.795133755220000e-2 1.825322765430000e-2 1.856019142110000e-2
1.887231412250000e-2 1.918968246100000e-2 1.951238459680000e-2 1.984051017120000e-2
2.017415033240000e-2 2.051339776050000e-2 2.085834669280000e-2 2.120909295090000e-2
2.156573396650000e-2 2.192836880890000e-2 2.229709821220000e-2 2.267202460370000e-2
2.305325213200000e-2 2.344088669600000e-2 2.383503597470000e-2 2.423580945630000e-2
2.464331846950000e-2 2.505767621380000e-2 2.547899779120000e-2 2.590740023830000e-2
2.634300255840000e-2 2.678592575500000e-2 2.723629286520000e-2 2.769422899390000e-2
2.815986134840000e-2 2.863331927420000e-2 2.911473429020000e-2 2.960424012610000e-2
3.010197275870000e-2 3.060807045050000e-2 3.112267378720000e-2 3.164592571770000e-2
3.217797159290000e-2 3.271895920700000e-2 3.326903883760000e-2 3.382836328820000e-2
3.439708793029999e-2 3.497537074669999e-2 3.556337237510000e-2 3.616125615310000e-2
3.676918816350000e-2 3.738733728010000e-2 3.801587521490000e-2 3.865497656600000e-2
3.930481886550000e-2 3.996558262940000e-2 4.063745140740000e-2 4.132061183409999e-2
4.201525368060000e-2 4.272156990750000e-2 4.343975671830000e-2 4.417001361390000e-2
4.491254344810000e-2 4.566755248410001e-2 4.643525045130001e-2 4.721585060420000e-2
4.800956978120000e-2 4.881662846500000e-2 4.963725084360000e-2 5.047166487300000e-2
5.132010234020000e-2 5.218279892790000e-2 5.305999427940000e-2 5.395193206590000e-2
5.485886005340000e-2 5.578103017240000e-2 5.671869858700001e-2 5.767212576680000e-2
5.864157655880000e-2 5.962732026110000e-2 6.062963069769999e-2 6.164878629470000e-2
6.268507015730000e-2 6.373877014900000e-2 6.481017897080000e-2 6.589959424320000e-2
6.700731858870000e-2 6.813365971540000e-2 6.927893050330001e-2 7.044344909040000e-2
7.162753896170000e-2 7.283152903850000e-2 7.405575377030001e-2 7.530055322750000e-2
7.656627319550000e-2 7.785326527159999e-2 7.916188696170000e-2 8.049250178019999e-2
8.184547935100001e-2 8.322119550989999e-2 8.462003240900000e-2 8.604237862329999e-2
8.748862925790000e-2 8.895918605850001e-2 9.045445752260001e-2 9.197485901290001e-2
9.352081287300001e-2 9.509274854439999e-2 9.669110268599999e-2 9.831631929549999e-2
9.996884983219999e-2 1.016491533430000e-1 1.033576965900000e-1 1.050949541790000e-1
1.068614086930000e-1 1.086575508250000e-1 1.104838795160000e-1 1.123409020900000e-1
1.142291343980000e-1 1.161491009630000e-1 1.181013351200000e-1 1.200863791700000e-1
1.221047845250000e-1 1.241571118680000e-1 1.262439313020000e-1 1.283658225130000e-1
1.305233749290000e-1 1.327171878830000e-1 1.349478707830000e-1 1.372160432760000e-1
1.395223354260000e-1 1.418673878840000e-1 1.442518520680000e-1 1.466763903450000e-1
1.491416762130000e-1 1.516483944900000e-1 1.541972415030000e-1 1.567889252810000e-1
1.594241657520000e-1 1.621036949460000e-1 1.648282571920000e-1 1.675986093320000e-1
1.704155209250000e-1 1.732797744640000e-1 1.761921655960000e-1 1.791535033340000e-1
1.821646102930000e-1 1.852263229110000e-1 1.883394916820000e-1 1.915049813970000e-1
1.947236713770000e-1 1.979964557240000e-1 2.013242435670000e-1 2.047079593110000e-1
2.081485429000000e-1 2.116469500740000e-1 2.152041526350000e-1 2.188211387160000e-1
2.224989130620000e-1 2.262384972970000e-1 2.300409302210000e-1 2.339072680890000e-1
2.378385849090000e-1 2.418359727380000e-1 2.459005419870000e-1 2.500334217300000e-1
2.542357600150000e-1 2.585087241870000e-1 2.628535012050000e-1 2.672712979820000e-1
2.717633417110000e-1 2.763308802110000e-1 2.809751822720000e-1 2.856975380080000e-1
2.904992592140000e-1 2.953816797340000e-1 3.003461558260000e-1 3.053940665430000e-1
3.105268141160000e-1 3.157458243400000e-1 3.210525469740000e-1 3.264484561420000e-1
3.319350507420000e-1 3.375138548640000e-1 3.431864182110000e-1 3.489543165320000e-1
3.548191520580000e-1 3.607825539470000e-1 3.668461787380000e-1 3.730117108110000e-1
3.792808628540000e-1 3.856553763360000e-1 3.921370219980000e-1 3.987276003390000e-1
4.054289421170000e-1 4.122429088580001e-1 4.191713933760000e-1 4.262163202940000e-1
4.333796465810000e-1 4.406633620970000e-1 4.480694901410000e-1 4.556000880210000e-1
4.632572476170000e-1 4.710430959660000e-1 4.789597958550000e-1 4.870095464190000e-1
4.951945837490000e-1 5.035171815210000e-1 5.119796516220000e-1 5.205843447900000e-1
5.293336512750000e-1 5.382300014950000e-1 5.472758667160001e-1 5.564737597370000e-1
5.658262355870000e-1 5.753358922350000e-1 5.850053713159999e-1 5.948373588560000e-1
6.048345860270000e-1 6.149998299010000e-1 6.253359142220000e-1 6.358457101910000e-1
6.465321372640000e-1 6.573981639599999e-1 6.684468086910000e-1 6.796811405960001e-1
6.911042803950000e-1 7.027194012550000e-1 7.145297296730000e-1 7.265385463729999e-1
7.387491872140000e-1 7.511650441190000e-1 7.637895660180000e-1 7.766262598019999e-1
7.896786913030000e-1 8.029504862800000e-1 8.164453314290000e-1 8.301669754039999e-1
8.441192298600001e-1 8.583059705149999e-1 8.727311382200000e-1 8.873987400599999e-1
9.023128504620001e-1 9.174776123310000e-1 9.328972381980000e-1 9.485760113920000e-1
9.645182872279999e-1 9.807284942190000e-1 9.972111353039999e-1 1.013970789100000e0
1.031012111180000e0 1.048339835340000e0 1.065958774960000e0 1.083873824310000e0
1.102089959890000e0 1.120612241860000e0 1.139445815420000e0 1.158595912250000e0
1.178067851930000e0 1.197867043460000e0 1.217998986740000e0 1.238469274110000e0
1.259283591900000e0 1.280447721990000e0 1.301967543440000e0 1.323849034120000e0
1.346098272360000e0 1.368721438650000e0 1.391724817340000e0 1.415114798420000e0
1.438897879250000e0 1.463080666400000e0 1.487669877450000e0 1.512672342910000e0
1.538095008060000e0 1.563944934920000e0 1.590229304200000e0 1.616955417270000e0
1.644130698220000e0 1.671762695930000e0 1.699859086110000e0 1.728427673520000e0
1.757476394040000e0 1.787013316960000e0 1.817046647160000e0 1.847584727430000e0
1.878636040770000e0 1.910209212740000e0 1.942313013860000e0 1.974956362080000e0
2.008148325190000e0 2.041898123400000e0 2.076215131870000e0 2.111108883320000e0
2.146589070690000e0 2.182665549810000e0 2.219348342150000e0 2.256647637630000e0
2.294573797380000e0 2.333137356710000e0 2.372349027950000e0 2.412219703500000e0
2.452760458800000e0 2.493982555420000e0 2.535897444210000e0 2.578516768480000e0
2.621852367190000e0 2.665916278290000e0 2.710720742030000e0 2.756278204400000e0
2.802601320530000e0 2.849702958260000e0 2.897596201670000e0 2.946294354760000e0
2.995810945090000e0 3.046159727600000e0 3.097354688380000e0 3.149410048590000e0
3.202340268380000e0 3.256160050930000e0 3.310884346530000e0 3.366528356720000e0
3.423107538530000e0 3.480637608770000e0 3.539134548370000e0 3.598614606860000e0
3.659094306870000e0 3.720590448700000e0 3.783120115000000e0 3.846700675540000e0
3.911349791980000e0 3.977085422830000e0 4.043925828410000e0 4.111889575940000e0
4.180995544650000e0 4.251262931110000e0 4.322711254480000e0 4.395360361980000e0
4.469230434390000e0 4.544341991630000e0 4.620715898520000e0 4.698373370530000e0
4.777335979660000e0 4.857625660500000e0 4.939264716230000e0 5.022275824910000e0
5.106682045710000e0 5.192506825340000e0 5.279774004570000e0 5.368507824850000e0
5.458732935020000e0 5.550474398210000e0 5.643757698740000e0 5.738608749240000e0
5.835053897830000e0 5.933119935450000e0 6.032834103300000e0 6.134224100400000e0
6.237318091280000e0 6.342144713840000e0 6.448733087250000e0 6.557112820080000e0
6.667314018510000e0 6.779367294680000e0 6.893303775240000e0 7.009155109930000e0
7.126953480430000e0 7.246731609260000e0 7.368522768900000e0 7.492360791010000e0
7.618280075820000e0 7.746315601750000e0 7.876502935020000e0 8.008878239620000e0
8.143478287330000e0 8.280340467920000e0 8.419502799520000e0 8.561003939250000e0
8.704883193890000e0 8.851180530810000e0 8.999936589110000e0 9.151192690869999e0
9.304990852660000e0 9.461373797160000e0 9.620384965100000e0 9.782068527260000e0
9.946469396780000e0 1.011363324160000e1 1.028360649730000e1 1.045643637960000e1
1.063217089810000e1 1.081085886890000e1 1.099254992880000e1 1.117729454870000e1
1.136514404770000e1 1.155615060740000e1 1.175036728650000e1 1.194784803530000e1
1.214864771080000e1 1.235282209200000e1 1.256042789520000e1 1.277152279020000e1
1.298616541580000e1 1.320441539620000e1 1.342633335790000e1 1.365198094620000e1
1.388142084240000e1 1.411471678130000e1 1.435193356880000e1 1.459313710000000e1
1.483839437750000e1 1.508777352980000e1 1.534134383050000e1 1.559917571750000e1
1.586134081230000e1 1.612791194040000e1 1.639896315090000e1 1.667456973760000e1
1.695480825970000e1 1.723975656290000e1 1.752949380150000e1 1.782410045980000e1
1.812365837490000e1 1.842825075940000e1 1.873796222410000e1 1.905287880200000e1
1.937308797190000e1 1.969867868300000e1 2.002974137910000e1 2.036636802420000e1
2.070865212800000e1 2.105668877150000e1 2.141057463390000e1 2.177040801890000e1
2.213628888270000e1 2.250831886120000e1 2.288660129840000e1 2.327124127520000e1
2.366234563860000e1 2.406002303110000e1 2.446438392130000e1 2.487554063410000e1
2.529360738260000e1 2.571870029890000e1 2.615093746720000e1 2.659043895620000e1
2.703732685240000e1 2.749172529420000e1 2.795376050640000e1 2.842356083500000e1
2.890125678310000e1 2.938698104720000e1 2.988086855370000e1 3.038305649690000e1
3.089368437650000e1 3.141289403700000e1 3.194082970650000e1 3.247763803740000e1
3.302346814640000e1 3.357847165660000e1 3.414280273910000e1 3.471661815620000e1
3.530007730480000e1 3.589334226070001e1 3.649657782340000e1 3.710995156220001e1
3.773363386280000e1 3.836779797410000e1 3.901262005710000e1 3.966827923300000e1
4.033495763360000e1 4.101284045170000e1 4.170211599240001e1 4.240297572560000e1
4.311561433900000e1 4.384022979240000e1 4.457702337250001e1 4.532619974890000e1
4.608796703100000e1 4.686253682580000e1 4.765012429640000e1 4.845094822230000e1
4.926523105960000e1 5.009319900330000e1 5.093508204990000e1 5.179111406110000e1
5.266153282900000e1 5.354658014240001e1 5.444650185330000e1 5.536154794580000e1
5.629197260530001e1 5.723803428900000e1 5.819999579790000e1 5.917812434970000e1
6.017269165320000e1 6.118397398330000e1 6.221225225840000e1 6.325781211800000e1
6.432094400190000e1 6.540194323160001e1 6.650111009140000e1 6.761874991270000e1
6.875517315800001e1 6.991069550780001e1 7.108563794810000e1 7.228032685910001e1
7.349509410670000e1 7.473027713410001e1 7.598621905540000e1 7.726326875170000e1
7.856178096700001e1 7.988211640770000e1 8.122464184200000e1 8.258973020230000e1
8.397776068860001e1 8.538911887380001e1 8.682419681099999e1 8.828339314210000e1
8.976711320880000e1 9.127576916520001e1 9.280978009210001e1 9.436957211339999e1
9.595557851470000e1 9.756823986360001e1 9.920800413200000e1 1.008753268200000e2
1.025706710850000e2 1.042945078650000e2 1.060473160160000e2 1.078295824390000e2
1.096418022210000e2 1.114844787670000e2 1.133581239440000e2 1.152632582210000e2
1.172004108140000e2 1.191701198340000e2 1.211729324340000e2 1.232094049640000e2
1.252801031250000e2 1.273856021230000e2 1.295264868320000e2 1.317033519580000e2
1.339168021980000e2 1.361674524140000e2 1.384559278010000e2 1.407828640620000e2
1.431489075820000e2 1.455547156110000e2 1.480009564450000e2 1.504883096100000e2
1.530174660550000e2
</PP_R>
<PP_RAB>
1.923801615090000e-7 1.956133660630000e-7 1.989009089220000e-7 2.022437033110000e-7
2.056426778070000e-7 2.090987765920000e-7 2.126129597150000e-7 2.161862033600000e-7
2.198195001190000e-7 2.235138592630000e-7 2.272703070280000e-7 2.310898868949999e-7
2.349736598830000e-7 2.389227048430000e-7 2.429381187570000e-7 2.470210170450000e-7
2.511725338690000e-7 2.553938224580000e-7 2.596860554160001e-7 2.640504250600000e-7
2.684881437430000e-7 2.730004441910000e-7 2.775885798520000e-7 2.822538252359999e-7
2.869974762760000e-7 2.918208506820000e-7 2.967252883120000e-7 3.017121515420000e-7
3.067828256420001e-7 3.119387191670000e-7 3.171812643410000e-7 3.225119174620000e-7
3.279321593000000e-7 3.334434955140000e-7 3.390474570649999e-7 3.447456006450000e-7
3.505395091080000e-7 3.564307919120000e-7 3.624210855610000e-7 3.685120540639999e-7
3.747053893950000e-7 3.810028119670000e-7 3.874060711029998e-7 3.939169455280000e-7
4.005372438589999e-7 4.072688051110001e-7 4.141134992060000e-7 4.210732274910000e-7
4.281499232690001e-7 4.353455523339999e-7 4.426621135190000e-7 4.501016392480000e-7
4.576661961050000e-7 4.653578854029999e-7 4.731788437730000e-7 4.811312437540001e-7
4.892172943950000e-7 4.974392418760000e-7 5.057993701220001e-7 5.143000014450000e-7
5.229434971869999e-7 5.317322583740001e-7 5.406687263850001e-7 5.497553836300000e-7
5.589947542389999e-7 5.683894047629999e-7 5.779419448880001e-7 5.876550281580000e-7
5.975313527140001e-7 6.075736620439997e-7 6.177847457420000e-7 6.281674402870001e-7
6.387246298259999e-7 6.494592469809999e-7 6.603742736579999e-7 6.714727418799999e-7
6.827577346250001e-7 6.942323866870002e-7 7.058998855420001e-7 7.177634722389998e-7
7.298264422920000e-7 7.420921466059999e-7 7.545639923990000e-7 7.672454441529998e-7
7.801400245740000e-7 7.932513155750000e-7 8.065829592640000e-7 8.201386589609999e-7
8.339221802259999e-7 8.479373519039999e-7 8.621880671869999e-7 8.766782846989997e-7
8.914120295940000e-7 9.063933946729998e-7 9.216265415239999e-7 9.371157016740000e-7
9.528651777660002e-7 9.688793447569999e-7 9.851626511299999e-7 1.001719620130000e-6
1.018554851020000e-6 1.035673020360000e-6 1.053078883310000e-6 1.070777274950000e-6
1.088773111600000e-6 1.107071392230000e-6 1.125677199810000e-6 1.144595702740000e-6
1.163832156280000e-6 1.183391904010000e-6 1.203280379330000e-6 1.223503106930000e-6
1.244065704370000e-6 1.264973883620000e-6 1.286233452640000e-6 1.307850317000000e-6
1.329830481520000e-6 1.352180051950000e-6 1.374905236650000e-6 1.398012348300000e-6
1.421507805710000e-6 1.445398135540000e-6 1.469689974150000e-6 1.494390069420000e-6
1.519505282650000e-6 1.545042590460000e-6 1.571009086690000e-6 1.597411984440000e-6
1.624258618020000e-6 1.651556444980000e-6 1.679313048250000e-6 1.707536138160000e-6
1.736233554650000e-6 1.765413269390000e-6 1.795083388070000e-6 1.825252152560000e-6
1.855927943270000e-6 1.887119281460000e-6 1.918834831580000e-6 1.951083403720000e-6
1.983873956010000e-6 2.017215597159999e-6 2.051117588950000e-6 2.085589348810000e-6
2.120640452450000e-6 2.156280636530000e-6 2.192519801310000e-6 2.229368013470000e-6
2.266835508859999e-6 2.304932695350000e-6 2.343670155750000e-6 2.383058650700000e-6
2.423109121710000e-6 2.463832694180000e-6 2.505240680450000e-6 2.547344583020000e-6
2.590156097690000e-6 2.633687116820000e-6 2.677949732640000e-6 2.722956240610000e-6
2.768719142810000e-6 2.815251151480000e-6 2.862565192450000e-6 2.910674408820000e-6
2.959592164590000e-6 3.009332048310000e-6 3.059907876960000e-6 3.111333699690000e-6
3.163623801790000e-6 3.216792708620000e-6 3.270855189660000e-6 3.325826262630000e-6
3.381721197599999e-6 3.438555521330000e-6 3.496345021469999e-6 3.555105751040000e-6
3.614854032850000e-6 3.675606464030000e-6 3.737379920630000e-6 3.800191562360000e-6
3.864058837289999e-6 3.928999486740001e-6 3.995031550200000e-6 4.062173370330001e-6
4.130443598079999e-6 4.199861197830001e-6 4.270445452700000e-6 4.342215969880000e-6
4.415192686069999e-6 4.489395873079999e-6 4.564846143350000e-6 4.641564455800000e-6
4.719572121550001e-6 4.798890809910000e-6 4.879542554350000e-6 4.961549758649999e-6
5.044935203120000e-6 5.129722050920000e-6 5.215933854499999e-6 5.303594562130000e-6
5.392728524579999e-6 5.483360501850000e-6 5.575515670070001e-6 5.669219628489999e-6
5.764498406600000e-6 5.861378471330000e-6 5.959886734440000e-6 6.060050559970000e-6
6.161897771830001e-6 6.265456661589999e-6 6.370755996270000e-6 6.477825026349999e-6
6.586693493930000e-6 6.697391640939999e-6 6.809950217590000e-6 6.924400490860000e-6
7.040774253230000e-6 7.159103831510000e-6 7.279422095769999e-6 7.401762468530000e-6
7.526158934020000e-6 7.652646047599999e-6 7.781258945410001e-6 7.912033354070002e-6
8.045005600639998e-6 8.180212622730000e-6 8.317691978690000e-6 8.457481858140001e-6
8.599621092480000e-6 8.744149165759998e-6 8.891106225590001e-6 9.040533094310000e-6
9.192471280360001e-6 9.346962989770001e-6 9.504051137879998e-6 9.663779361309999e-6
9.826192030039998e-6 9.991334259729999e-6 1.015925192430000e-5 1.032999166860000e-5
1.050360092150000e-5 1.068012790880000e-5 1.085962166700000e-5 1.104213205660000e-5
1.122770977610000e-5 1.141640637610000e-5 1.160827427350000e-5 1.180336676620000e-5
1.200173804770000e-5 1.220344322250000e-5 1.240853832120000e-5 1.261708031580000e-5
1.282912713610000e-5 1.304473768530000e-5 1.326397185670000e-5 1.348689054990000e-5
1.371355568840000e-5 1.394403023610000e-5 1.417837821510000e-5 1.441666472380000e-5
1.465895595420000e-5 1.490531921110000e-5 1.515582293020000e-5 1.541053669770000e-5
1.566953126880000e-5 1.593287858830000e-5 1.620065180990000e-5 1.647292531670000e-5
1.674977474200000e-5 1.703127699020000e-5 1.731751025820000e-5 1.760855405710000e-5
1.790448923420000e-5 1.820539799560000e-5 1.851136392920000e-5 1.882247202730000e-5
1.913880871080000e-5 1.946046185320000e-5 1.978752080460000e-5 2.012007641680000e-5
2.045822106839999e-5 2.080204869080001e-5 2.115165479380000e-5 2.150713649250000e-5
2.186859253410000e-5 2.223612332530000e-5 2.260983096040000e-5 2.298981924950000e-5
2.337619374730000e-5 2.376906178260000e-5 2.416853248790000e-5 2.457471682990000e-5
2.498772764000000e-5 2.540767964640000e-5 2.583468950480001e-5 2.626887583210000e-5
2.671035923820000e-5 2.715926236030000e-5 2.761570989659999e-5 2.807982864090000e-5
2.855174751830000e-5 2.903159762020000e-5 2.951951224140000e-5 3.001562691699999e-5
3.052007945970000e-5 3.103300999850000e-5 3.155456101740000e-5 3.208487739510000e-5
3.262410644500001e-5 3.317239795650000e-5 3.372990423619999e-5 3.429678015070000e-5
3.487318316910000e-5 3.545927340710000e-5 3.605521367120001e-5 3.666116950429999e-5
3.727730923130000e-5 3.790380400620000e-5 3.854082785920000e-5 3.918855774559999e-5
3.984717359440000e-5 4.051685835880000e-5 4.119779806660000e-5 4.189018187210000e-5
4.259420210859999e-5 4.331005434180000e-5 4.403793742410000e-5 4.477805354990000e-5
4.553060831200001e-5 4.629581075790000e-5 4.707387344899999e-5 4.786501251880000e-5
4.866944773310000e-5 4.948740255140000e-5 5.031910418870000e-5 5.116478367840001e-5
5.202467593700000e-5 5.289901982909999e-5 5.378805823340000e-5 5.469203811090000e-5
5.561121057289999e-5 5.654583095100001e-5 5.749615886790000e-5 5.846245830980000e-5
5.944499769939999e-5 6.044404997050000e-5 6.145989264420000e-5 6.249280790550000e-5
6.354308268190000e-5 6.461100872320000e-5 6.569688268239999e-5 6.680100619810001e-5
6.792368597839999e-5 6.906523388599998e-5 7.022596702490000e-5 7.140620782840000e-5
7.260628414879999e-5 7.382652934830000e-5 7.506728239179999e-5 7.632888794090000e-5
7.761169644970000e-5 7.891606426200002e-5 8.024235371080001e-5 8.159093321820000e-5
8.296217739840001e-5 8.435646716139999e-5 8.577418981870000e-5 8.721573919139999e-5
8.868151571909999e-5 9.017192657150000e-5 9.168738576099999e-5 9.322831425830000e-5
9.479514010910000e-5 9.638829855280001e-5 9.800823214370002e-5 9.965539087360000e-5
1.013302322970000e-4 1.030332216600000e-4 1.047648320240000e-4 1.065255444030000e-4
1.083158478970000e-4 1.101362398230000e-4 1.119872258570000e-4 1.138693201740000e-4
1.157830455890000e-4 1.177289337070000e-4 1.197075250630000e-4 1.217193692790000e-4
1.237650252130000e-4 1.258450611170000e-4 1.279600547920000e-4 1.301105937490000e-4